created by fftool

1260 atoms
920 bonds
820 angles
480 dihedrals
7 atom types
5 bond types
6 angle types
4 dihedral types
0.000000 24.583942 xlo xhi
0.000000 24.583942 ylo yhi
0.000000 24.583942 zlo zhi

Masses

   1   12.011  # C3H
   2   12.011  # CTO
   3    1.008  # H
   4   15.999  # OH
   5    1.008  # HO
   6    1.008  # Hw
   7   15.999  # Ow

Bond Coeffs

   1   267.999522     1.529000  # CT-CT
   2   340.000000     1.090000  # CT-HC
   3   320.000000     1.410000  # CT-OH
   4   552.999522     0.945000  # HO-OH
   5   517.630258     1.000000  # Ow-Hw

Angle Coeffs

   1    37.500000   110.700000  # HC-CT-CT
   2    33.000000   107.800000  # HC-CT-HC
   3    50.000000   109.500000  # CT-CT-OH
   4    35.000000   109.500000  # HC-CT-OH
   5    55.000000   108.500000  # CT-OH-HO
   6    37.950526   109.470000  # Hw-Ow-Hw

Dihedral Coeffs

   1     0.000000     0.000000     0.300000     0.000000  # HC-CT-CT-HC
   2     0.000000     0.000000     0.467997     0.000000  # HC-CT-CT-OH
   3    -0.355999    -0.173996     0.491993     0.000000  # CT-CT-OH-HO
   4     0.000000     0.000000     0.450000     0.000000  # HC-CT-OH-HO

Atoms

      1       1    1  -0.180000  2.205595e+01  2.019684e+01  1.431615e+01  # C3H ethanol
      2       1    2   0.145000  2.222624e+01  2.134961e+01  1.342004e+01  # CTO ethanol
      3       1    3   0.060000  2.124909e+01  2.176021e+01  1.316568e+01  # H ethanol
      4       1    3   0.060000  2.303310e+01  1.978624e+01  1.457050e+01  # H ethanol
      5       1    3   0.060000  2.273401e+01  2.103093e+01  1.250970e+01  # H ethanol
      6       1    3   0.060000  2.154818e+01  2.051552e+01  1.522648e+01  # H ethanol
      7       1    4  -0.683000  2.299698e+01  2.233801e+01  1.406589e+01  # OH ethanol
      8       1    3   0.060000  2.146013e+01  1.943276e+01  1.381686e+01  # H ethanol
      9       1    5   0.418000  2.310645e+01  2.307907e+01  1.348982e+01  # HO ethanol
     10       2    1  -0.180000  4.939697e+00  1.868010e+01  2.214097e+01  # C3H ethanol
     11       2    2   0.145000  5.783557e+00  1.750024e+01  2.237916e+01  # CTO ethanol
     12       2    3   0.060000  6.580233e+00  1.775763e+01  2.307713e+01  # H ethanol
     13       2    3   0.060000  4.143021e+00  1.842272e+01  2.144300e+01  # H ethanol
     14       2    3   0.060000  6.219794e+00  1.716870e+01  2.143689e+01  # H ethanol
     15       2    3   0.060000  4.503460e+00  1.901165e+01  2.308324e+01  # H ethanol
     16       2    4  -0.683000  4.999254e+00  1.646287e+01  2.292398e+01  # OH ethanol
     17       2    3   0.060000  5.546002e+00  1.948204e+01  2.171980e+01  # H ethanol
     18       2    5   0.418000  5.541736e+00  1.570439e+01  2.307711e+01  # HO ethanol
     19       3    1  -0.180000  1.531995e+01  1.191686e+01  1.066933e+01  # C3H ethanol
     20       3    2   0.145000  1.609591e+01  1.070113e+01  1.038509e+01  # CTO ethanol
     21       3    3   0.060000  1.715971e+01  1.093857e+01  1.039192e+01  # H ethanol
     22       3    3   0.060000  1.425615e+01  1.167943e+01  1.066250e+01  # H ethanol
     23       3    3   0.060000  1.581723e+01  1.031231e+01  9.405670e+00  # H ethanol
     24       3    3   0.060000  1.559863e+01  1.230569e+01  1.164874e+01  # H ethanol
     25       3    4  -0.683000  1.582563e+01  9.729199e+00  1.137017e+01  # OH ethanol
     26       3    3   0.060000  1.552890e+01  1.266822e+01  9.907810e+00  # H ethanol
     27       3    5   0.418000  1.632445e+01  8.947658e+00  1.118744e+01  # HO ethanol
     28       4    1  -0.180000  4.919918e+00  3.961360e+00  6.704313e+00  # C3H ethanol
     29       4    2   0.145000  3.700732e+00  4.693061e+00  6.331352e+00  # CTO ethanol
     30       4    3   0.060000  3.689158e+00  4.855390e+00  5.253570e+00  # H ethanol
     31       4    3   0.060000  4.931492e+00  3.799031e+00  7.782095e+00  # H ethanol
     32       4    3   0.060000  3.682798e+00  5.655146e+00  6.843379e+00  # H ethanol
     33       4    3   0.060000  4.937853e+00  2.999276e+00  6.192286e+00  # H ethanol
     34       4    4  -0.683000  2.567820e+00  3.941376e+00  6.704956e+00  # OH ethanol
     35       4    3   0.060000  5.795715e+00  4.542451e+00  6.415498e+00  # H ethanol
     36       4    5   0.418000  1.784058e+00  4.411755e+00  6.465195e+00  # HO ethanol
     37       5    1  -0.180000  1.109474e+01  1.343474e+01  5.453131e+00  # C3H ethanol
     38       5    2   0.145000  1.012007e+01  1.442354e+01  4.970216e+00  # CTO ethanol
     39       5    3   0.060000  1.063843e+01  1.520196e+01  4.410339e+00  # H ethanol
     40       5    3   0.060000  1.057639e+01  1.265631e+01  6.013007e+00  # H ethanol
     41       5    3   0.060000  9.603712e+00  1.487040e+01  5.819796e+00  # H ethanol
     42       5    3   0.060000  1.161111e+01  1.298788e+01  4.603551e+00  # H ethanol
     43       5    4  -0.683000  9.181290e+00  1.378832e+01  4.131598e+00  # OH ethanol
     44       5    3   0.060000  1.182047e+01  1.392580e+01  6.101423e+00  # H ethanol
     45       5    5   0.418000  8.554719e+00  1.442397e+01  3.821152e+00  # HO ethanol
     46       6    1  -0.180000  1.540351e+01  2.254804e+00  1.567332e+01  # C3H ethanol
     47       6    2   0.145000  1.685681e+01  2.443140e+00  1.555780e+01  # CTO ethanol
     48       6    3   0.060000  1.736357e+01  1.501125e+00  1.576732e+01  # H ethanol
     49       6    3   0.060000  1.489675e+01  3.196820e+00  1.546380e+01  # H ethanol
     50       6    3   0.060000  1.718387e+01  3.197951e+00  1.627292e+01  # H ethanol
     51       6    3   0.060000  1.507645e+01  1.499993e+00  1.495820e+01  # H ethanol
     52       6    4  -0.683000  1.717417e+01  2.866208e+00  1.425074e+01  # OH ethanol
     53       6    3   0.060000  1.515818e+01  1.927751e+00  1.668374e+01  # H ethanol
     54       6    5   0.418000  1.810843e+01  2.987281e+00  1.417648e+01  # HO ethanol
     55       7    1  -0.180000  1.849508e+01  2.265686e+01  2.009518e+01  # C3H ethanol
     56       7    2   0.145000  1.840695e+01  2.119784e+01  1.993899e+01  # CTO ethanol
     57       7    3   0.060000  1.941076e+01  2.077495e+01  1.989859e+01  # H ethanol
     58       7    3   0.060000  1.749127e+01  2.307976e+01  2.013559e+01  # H ethanol
     59       7    3   0.060000  1.787651e+01  2.096206e+01  1.901643e+01  # H ethanol
     60       7    3   0.060000  1.902552e+01  2.289265e+01  2.101775e+01  # H ethanol
     61       7    4  -0.683000  1.770997e+01  2.064844e+01  2.103466e+01  # OH ethanol
     62       7    3   0.060000  1.903388e+01  2.308158e+01  1.924818e+01  # H ethanol
     63       7    5   0.418000  1.765332e+01  1.971050e+01  2.093425e+01  # HO ethanol
     64       8    1  -0.180000  1.956323e+01  7.007787e+00  1.822278e+01  # C3H ethanol
     65       8    2   0.145000  1.831089e+01  7.481875e+00  1.882923e+01  # CTO ethanol
     66       8    3   0.060000  1.746830e+01  6.950855e+00  1.838632e+01  # H ethanol
     67       8    3   0.060000  2.040582e+01  7.538807e+00  1.866569e+01  # H ethanol
     68       8    3   0.060000  1.820120e+01  8.551214e+00  1.864872e+01  # H ethanol
     69       8    3   0.060000  1.967292e+01  5.938448e+00  1.840329e+01  # H ethanol
     70       8    4  -0.683000  1.833979e+01  7.240901e+00  2.021819e+01  # OH ethanol
     71       8    3   0.060000  1.954088e+01  7.194072e+00  1.714905e+01  # H ethanol
     72       8    5   0.418000  1.753472e+01  7.545671e+00  2.060804e+01  # HO ethanol
     73       9    1  -0.180000  1.300736e+01  1.874611e+01  2.034255e+01  # C3H ethanol
     74       9    2   0.145000  1.224361e+01  1.763491e+01  1.975705e+01  # CTO ethanol
     75       9    3   0.060000  1.179967e+01  1.795533e+01  1.881453e+01  # H ethanol
     76       9    3   0.060000  1.345130e+01  1.842570e+01  2.128507e+01  # H ethanol
     77       9    3   0.060000  1.145448e+01  1.733309e+01  2.044573e+01  # H ethanol
     78       9    3   0.060000  1.379649e+01  1.904794e+01  1.965388e+01  # H ethanol
     79       9    4  -0.683000  1.310508e+01  1.654349e+01  1.952301e+01  # OH ethanol
     80       9    3   0.060000  1.234140e+01  1.958984e+01  2.052348e+01  # H ethanol
     81       9    5   0.418000  1.261410e+01  1.582914e+01  1.914661e+01  # HO ethanol
     82      10    1  -0.180000  6.601359e+00  2.213712e+01  8.243858e+00  # C3H ethanol
     83      10    2   0.145000  7.421663e+00  2.238317e+01  9.438622e+00  # CTO ethanol
     84      10    3   0.060000  7.585339e+00  2.144412e+01  9.967300e+00  # H ethanol
     85      10    3   0.060000  6.437683e+00  2.307616e+01  7.715179e+00  # H ethanol
     86      10    3   0.060000  6.906777e+00  2.308433e+01  1.009540e+01  # H ethanol
     87      10    3   0.060000  7.116245e+00  2.143595e+01  7.587075e+00  # H ethanol
     88      10    4  -0.683000  8.663922e+00  2.292723e+01  9.052759e+00  # OH ethanol
     89      10    3   0.060000  5.641033e+00  2.171653e+01  8.542149e+00  # H ethanol
     90      10    5   0.418000  9.191260e+00  2.308541e+01  9.820822e+00  # HO ethanol
     91      11    1  -0.180000  1.254724e+01  4.956501e+00  1.420488e+01  # C3H ethanol
     92      11    2   0.145000  1.167225e+01  3.792856e+00  1.440794e+01  # CTO ethanol
     93      11    3   0.060000  1.227499e+01  2.928807e+00  1.468764e+01  # H ethanol
     94      11    3   0.060000  1.194451e+01  5.820550e+00  1.392519e+01  # H ethanol
     95      11    3   0.060000  1.113441e+01  3.576567e+00  1.348488e+01  # H ethanol
     96      11    3   0.060000  1.308509e+01  5.172790e+00  1.512794e+01  # H ethanol
     97      11    4  -0.683000  1.074786e+01  4.072625e+00  1.543523e+01  # OH ethanol
     98      11    3   0.060000  1.326185e+01  4.740225e+00  1.341074e+01  # H ethanol
     99      11    5   0.418000  1.018536e+01  3.324567e+00  1.556576e+01  # HO ethanol
    100      12    1  -0.180000  1.992658e+01  1.442304e+01  2.142892e+01  # C3H ethanol
    101      12    2   0.145000  1.954250e+01  1.319932e+01  2.214718e+01  # CTO ethanol
    102      12    3   0.060000  1.900346e+01  1.253499e+01  2.147176e+01  # H ethanol
    103      12    3   0.060000  2.046563e+01  1.508737e+01  2.210434e+01  # H ethanol
    104      12    3   0.060000  1.890139e+01  1.345808e+01  2.298986e+01  # H ethanol
    105      12    3   0.060000  2.056770e+01  1.416428e+01  2.058624e+01  # H ethanol
    106      12    4  -0.683000  2.070022e+01  1.254852e+01  2.262074e+01  # OH ethanol
    107      12    3   0.060000  1.903161e+01  1.492614e+01  2.106283e+01  # H ethanol
    108      12    5   0.418000  2.045331e+01  1.176185e+01  2.308248e+01  # HO ethanol
    109      13    1  -0.180000  1.708304e+01  1.430862e+01  1.632839e+01  # C3H ethanol
    110      13    2   0.145000  1.600626e+01  1.524955e+01  1.666910e+01  # CTO ethanol
    111      13    3   0.060000  1.504464e+01  1.474014e+01  1.660664e+01  # H ethanol
    112      13    3   0.060000  1.804466e+01  1.481802e+01  1.639085e+01  # H ethanol
    113      13    3   0.060000  1.601966e+01  1.608624e+01  1.597063e+01  # H ethanol
    114      13    3   0.060000  1.706964e+01  1.347192e+01  1.702686e+01  # H ethanol
    115      13    4  -0.683000  1.619855e+01  1.572998e+01  1.798071e+01  # OH ethanol
    116      13    3   0.060000  1.693439e+01  1.393722e+01  1.531445e+01  # H ethanol
    117      13    5   0.418000  1.550633e+01  1.633486e+01  1.819974e+01  # HO ethanol
    118      14    1  -0.180000  1.266309e+01  6.799310e+00  1.960752e+01  # C3H ethanol
    119      14    2   0.145000  1.172508e+01  5.674131e+00  1.973003e+01  # CTO ethanol
    120      14    3   0.060000  1.125566e+01  5.484996e+00  1.876464e+01  # H ethanol
    121      14    3   0.060000  1.313250e+01  6.988444e+00  2.057291e+01  # H ethanol
    122      14    3   0.060000  1.095794e+01  5.918313e+00  2.046486e+01  # H ethanol
    123      14    3   0.060000  1.343023e+01  6.555128e+00  1.887270e+01  # H ethanol
    124      14    4  -0.683000  1.242366e+01  4.522135e+00  2.014596e+01  # OH ethanol
    125      14    3   0.060000  1.212305e+01  7.689859e+00  1.928599e+01  # H ethanol
    126      14    5   0.418000  1.182065e+01  3.798805e+00  2.022471e+01  # HO ethanol
    127      15    1  -0.180000  8.200015e+00  2.115696e+01  1.675786e+01  # C3H ethanol
    128      15    2   0.145000  7.334519e+00  2.027179e+01  1.596522e+01  # CTO ethanol
    129      15    3   0.060000  7.820203e+00  2.004188e+01  1.501688e+01  # H ethanol
    130      15    3   0.060000  7.714331e+00  2.138688e+01  1.770620e+01  # H ethanol
    131      15    3   0.060000  6.383162e+00  2.076846e+01  1.577459e+01  # H ethanol
    132      15    3   0.060000  9.151371e+00  2.066030e+01  1.694849e+01  # H ethanol
    133      15    4  -0.683000  7.105556e+00  1.907648e+01  1.667719e+01  # OH ethanol
    134      15    3   0.060000  8.377015e+00  2.208100e+01  1.620747e+01  # H ethanol
    135      15    5   0.418000  6.549166e+00  1.850744e+01  1.616763e+01  # HO ethanol
    136      16    1  -0.180000  9.457597e+00  1.708760e+01  1.334935e+01  # C3H ethanol
    137      16    2   0.145000  8.353467e+00  1.658317e+01  1.252029e+01  # CTO ethanol
    138      16    3   0.060000  7.852412e+00  1.741981e+01  1.203340e+01  # H ethanol
    139      16    3   0.060000  9.958651e+00  1.625095e+01  1.383624e+01  # H ethanol
    140      16    3   0.060000  7.640723e+00  1.604954e+01  1.314905e+01  # H ethanol
    141      16    3   0.060000  1.017034e+01  1.762122e+01  1.272059e+01  # H ethanol
    142      16    4  -0.683000  8.863043e+00  1.570665e+01  1.154042e+01  # OH ethanol
    143      16    3   0.060000  9.063669e+00  1.776519e+01  1.410684e+01  # H ethanol
    144      16    5   0.418000  8.153245e+00  1.538237e+01  1.100745e+01  # HO ethanol
    145      17    1  -0.180000  2.120746e+01  2.164329e+00  2.001726e+01  # C3H ethanol
    146      17    2   0.145000  2.249276e+01  2.443792e+00  1.936091e+01  # CTO ethanol
    147      17    3   0.060000  2.303522e+01  1.510348e+00  1.921084e+01  # H ethanol
    148      17    3   0.060000  2.066500e+01  3.097773e+00  2.016733e+01  # H ethanol
    149      17    3   0.060000  2.308438e+01  3.110396e+00  1.998838e+01  # H ethanol
    150      17    3   0.060000  2.061584e+01  1.497726e+00  1.938979e+01  # H ethanol
    151      17    4  -0.683000  2.226033e+01  3.057409e+00  1.811289e+01  # OH ethanol
    152      17    3   0.060000  2.138714e+01  1.689973e+00  2.098204e+01  # H ethanol
    153      17    5   0.418000  2.308659e+01  3.237063e+00  1.769095e+01  # HO ethanol
    154      18    1  -0.180000  7.953138e+00  5.875392e+00  1.521512e+01  # C3H ethanol
    155      18    2   0.145000  7.047699e+00  4.785989e+00  1.482233e+01  # CTO ethanol
    156      18    3   0.060000  7.557759e+00  3.829595e+00  1.493744e+01  # H ethanol
    157      18    3   0.060000  7.443078e+00  6.831786e+00  1.510001e+01  # H ethanol
    158      18    3   0.060000  6.751690e+00  4.916346e+00  1.378143e+01  # H ethanol
    159      18    3   0.060000  8.249147e+00  5.745034e+00  1.625602e+01  # H ethanol
    160      18    4  -0.683000  5.901091e+00  4.808109e+00  1.564264e+01  # OH ethanol
    161      18    3   0.060000  8.839523e+00  5.858291e+00  1.458098e+01  # H ethanol
    162      18    5   0.418000  5.319023e+00  4.107778e+00  1.539013e+01  # HO ethanol
    163      19    1  -0.180000  7.029175e+00  2.496251e+00  1.156192e+01  # C3H ethanol
    164      19    2   0.145000  8.385494e+00  2.407661e+00  1.212179e+01  # CTO ethanol
    165      19    3   0.060000  8.722529e+00  3.401075e+00  1.241782e+01  # H ethanol
    166      19    3   0.060000  6.692141e+00  1.502837e+00  1.126589e+01  # H ethanol
    167      19    3   0.060000  9.063657e+00  2.003442e+00  1.137026e+01  # H ethanol
    168      19    3   0.060000  6.351012e+00  2.900471e+00  1.231345e+01  # H ethanol
    169      19    4  -0.683000  8.375064e+00  1.560396e+00  1.324879e+01  # OH ethanol
    170      19    3   0.060000  7.037239e+00  3.151230e+00  1.069069e+01  # H ethanol
    171      19    5   0.418000  9.246983e+00  1.503446e+00  1.360870e+01  # HO ethanol
    172      20    1  -0.180000  2.326420e+00  5.423568e+00  1.610778e+01  # C3H ethanol
    173      20    2   0.145000  2.429596e+00  4.023582e+00  1.654400e+01  # CTO ethanol
    174      20    3   0.060000  1.500825e+00  3.724464e+00  1.702981e+01  # H ethanol
    175      20    3   0.060000  3.255192e+00  5.722686e+00  1.562197e+01  # H ethanol
    176      20    3   0.060000  3.256102e+00  3.921583e+00  1.724727e+01  # H ethanol
    177      20    3   0.060000  1.499914e+00  5.525568e+00  1.540451e+01  # H ethanol
    178      20    4  -0.683000  2.660990e+00  3.197709e+00  1.542486e+01  # OH ethanol
    179      20    3   0.060000  2.147541e+00  6.062008e+00  1.697293e+01  # H ethanol
    180      20    5   0.418000  2.727318e+00  2.297718e+00  1.570529e+01  # HO ethanol
    181      21    1  -0.180000  1.560779e+01  2.107763e+01  4.631391e+00  # C3H ethanol
    182      21    2   0.145000  1.650568e+01  2.057175e+01  3.583161e+00  # CTO ethanol
    183      21    3   0.060000  1.688092e+01  1.958899e+01  3.868608e+00  # H ethanol
    184      21    3   0.060000  1.523256e+01  2.206039e+01  4.345945e+00  # H ethanol
    185      21    3   0.060000  1.734340e+01  2.125803e+01  3.459285e+00  # H ethanol
    186      21    3   0.060000  1.477008e+01  2.039134e+01  4.755267e+00  # H ethanol
    187      21    4  -0.683000  1.579910e+01  2.046936e+01  2.367285e+00  # OH ethanol
    188      21    3   0.060000  1.615402e+01  2.115678e+01  5.571323e+00  # H ethanol
    189      21    5   0.418000  1.637632e+01  2.014415e+01  1.693423e+00  # HO ethanol
    190      22    1  -0.180000  5.121460e+00  1.119208e+01  1.156856e+01  # C3H ethanol
    191      22    2   0.145000  5.271380e+00  9.734632e+00  1.168802e+01  # CTO ethanol
    192      22    3   0.060000  4.288507e+00  9.275100e+00  1.179238e+01  # H ethanol
    193      22    3   0.060000  6.104333e+00  1.165161e+01  1.146420e+01  # H ethanol
    194      22    3   0.060000  5.875738e+00  9.501678e+00  1.256471e+01  # H ethanol
    195      22    3   0.060000  4.517101e+00  1.142503e+01  1.069187e+01  # H ethanol
    196      22    4  -0.683000  5.905024e+00  9.230473e+00  1.053372e+01  # OH ethanol
    197      22    3   0.060000  4.631621e+00  1.158182e+01  1.246089e+01  # H ethanol
    198      22    5   0.418000  6.001401e+00  8.293542e+00  1.061052e+01  # HO ethanol
    199      23    1  -0.180000  6.047345e+00  1.616990e+01  7.966303e+00  # C3H ethanol
    200      23    2   0.145000  4.873258e+00  1.582662e+01  8.781520e+00  # CTO ethanol
    201      23    3   0.060000  4.587932e+00  1.668585e+01  9.388494e+00  # H ethanol
    202      23    3   0.060000  6.332671e+00  1.531067e+01  7.359329e+00  # H ethanol
    203      23    3   0.060000  5.115427e+00  1.498675e+01  9.432728e+00  # H ethanol
    204      23    3   0.060000  5.805177e+00  1.700977e+01  7.315096e+00  # H ethanol
    205      23    4  -0.683000  3.801320e+00  1.547185e+01  7.937017e+00  # OH ethanol
    206      23    3   0.060000  6.876006e+00  1.644416e+01  8.619146e+00  # H ethanol
    207      23    5   0.418000  3.046550e+00  1.525117e+01  8.461085e+00  # HO ethanol
    208      24    1  -0.180000  1.156950e+01  1.348722e+01  1.677705e+01  # C3H ethanol
    209      24    2   0.145000  1.053405e+01  1.348265e+01  1.782047e+01  # CTO ethanol
    210      24    3   0.060000  1.034393e+01  1.450446e+01  1.814889e+01  # H ethanol
    211      24    3   0.060000  1.175961e+01  1.246541e+01  1.644864e+01  # H ethanol
    212      24    3   0.060000  1.087368e+01  1.288657e+01  1.866749e+01  # H ethanol
    213      24    3   0.060000  1.122987e+01  1.408329e+01  1.593003e+01  # H ethanol
    214      24    4  -0.683000  9.346046e+00  1.292753e+01  1.730221e+01  # OH ethanol
    215      24    3   0.060000  1.248788e+01  1.391635e+01  1.717770e+01  # H ethanol
    216      24    5   0.418000  8.680401e+00  1.292460e+01  1.797298e+01  # HO ethanol
    217      25    1  -0.180000  2.107153e+00  1.871509e+01  1.899761e+01  # C3H ethanol
    218      25    2   0.145000  2.446383e+00  2.013963e+01  1.886913e+01  # CTO ethanol
    219      25    3   0.060000  1.530885e+00  2.073051e+01  1.884041e+01  # H ethanol
    220      25    3   0.060000  3.022650e+00  1.812421e+01  1.902632e+01  # H ethanol
    221      25    3   0.060000  3.009454e+00  2.029805e+01  1.794937e+01  # H ethanol
    222      25    3   0.060000  1.544081e+00  1.855667e+01  1.991737e+01  # H ethanol
    223      25    4  -0.683000  3.228119e+00  2.053869e+01  1.997264e+01  # OH ethanol
    224      25    3   0.060000  1.502831e+00  1.840660e+01  1.814454e+01  # H ethanol
    225      25    5   0.418000  3.446195e+00  2.145446e+01  1.989005e+01  # HO ethanol
    226      26    1  -0.180000  9.187027e+00  2.012045e+01  4.372117e+00  # C3H ethanol
    227      26    2   0.145000  1.029884e+01  1.918596e+01  4.145215e+00  # CTO ethanol
    228      26    3   0.060000  1.013601e+01  1.864641e+01  3.212222e+00  # H ethanol
    229      26    3   0.060000  9.349860e+00  2.065999e+01  5.305110e+00  # H ethanol
    230      26    3   0.060000  1.035152e+01  1.847589e+01  4.970522e+00  # H ethanol
    231      26    3   0.060000  9.134350e+00  2.083052e+01  3.546811e+00  # H ethanol
    232      26    4  -0.683000  1.150929e+01  1.990480e+01  4.066569e+00  # OH ethanol
    233      26    3   0.060000  8.251293e+00  1.956475e+01  4.432914e+00  # H ethanol
    234      26    5   0.418000  1.222403e+01  1.930405e+01  3.920703e+00  # HO ethanol
    235      27    1  -0.180000  1.166741e+01  4.639751e+00  7.471827e+00  # C3H ethanol
    236      27    2   0.145000  1.242328e+01  5.529074e+00  8.365506e+00  # CTO ethanol
    237      27    3   0.060000  1.315134e+01  6.095352e+00  7.784685e+00  # H ethanol
    238      27    3   0.060000  1.093934e+01  4.073472e+00  8.052648e+00  # H ethanol
    239      27    3   0.060000  1.294234e+01  4.934150e+00  9.117002e+00  # H ethanol
    240      27    3   0.060000  1.114835e+01  5.234675e+00  6.720331e+00  # H ethanol
    241      27    4  -0.683000  1.153608e+01  6.420363e+00  9.003146e+00  # OH ethanol
    242      27    3   0.060000  1.235326e+01  3.950741e+00  6.978899e+00  # H ethanol
    243      27    5   0.418000  1.202200e+01  6.992070e+00  9.577655e+00  # HO ethanol
    244      28    1  -0.180000  5.523767e+00  1.310089e+01  2.096967e+01  # C3H ethanol
    245      28    2   0.145000  5.492355e+00  1.237398e+01  2.224698e+01  # CTO ethanol
    246      28    3   0.060000  5.400771e+00  1.308496e+01  2.306808e+01  # H ethanol
    247      28    3   0.060000  5.615351e+00  1.238991e+01  2.014857e+01  # H ethanol
    248      28    3   0.060000  6.413139e+00  1.180232e+01  2.236303e+01  # H ethanol
    249      28    3   0.060000  4.602983e+00  1.367254e+01  2.085362e+01  # H ethanol
    250      28    4  -0.683000  4.389548e+00  1.149551e+01  2.226160e+01  # OH ethanol
    251      28    3   0.060000  6.376291e+00  1.377999e+01  2.095837e+01  # H ethanol
    252      28    5   0.418000  4.369355e+00  1.102821e+01  2.308272e+01  # HO ethanol
    253      29    1  -0.180000  2.121888e+01  1.885267e+01  7.507644e+00  # C3H ethanol
    254      29    2   0.145000  2.212224e+01  1.783466e+01  8.063057e+00  # CTO ethanol
    255      29    3   0.060000  2.161005e+01  1.728596e+01  8.853426e+00  # H ethanol
    256      29    3   0.060000  2.173107e+01  1.940137e+01  6.717276e+00  # H ethanol
    257      29    3   0.060000  2.300822e+01  1.831928e+01  8.473289e+00  # H ethanol
    258      29    3   0.060000  2.033290e+01  1.836804e+01  7.097412e+00  # H ethanol
    259      29    4  -0.683000  2.250646e+01  1.693970e+01  7.043485e+00  # OH ethanol
    260      29    3   0.060000  2.092186e+01  1.954451e+01  8.295825e+00  # H ethanol
    261      29    5   0.418000  2.308720e+01  1.628527e+01  7.400536e+00  # HO ethanol
    262      30    1  -0.180000  2.245312e+01  1.106357e+01  7.190015e+00  # C3H ethanol
    263      30    2   0.145000  2.148666e+01  1.213662e+01  6.915383e+00  # CTO ethanol
    264      30    3   0.060000  2.202163e+01  1.305546e+01  6.675320e+00  # H ethanol
    265      30    3   0.060000  2.191814e+01  1.014473e+01  7.430078e+00  # H ethanol
    266      30    3   0.060000  2.086344e+01  1.229883e+01  7.794809e+00  # H ethanol
    267      30    3   0.060000  2.307633e+01  1.090135e+01  6.310589e+00  # H ethanol
    268      30    4  -0.683000  2.067247e+01  1.176890e+01  5.824519e+00  # OH ethanol
    269      30    3   0.060000  2.308252e+01  1.134783e+01  8.033306e+00  # H ethanol
    270      30    5   0.418000  2.005118e+01  1.245871e+01  5.647970e+00  # HO ethanol
    271      31    1  -0.180000  5.953121e+00  2.103763e+00  2.226994e+01  # C3H ethanol
    272      31    2   0.145000  4.855384e+00  2.580679e+00  2.141646e+01  # CTO ethanol
    273      31    3   0.060000  4.169066e+00  3.184641e+00  2.201001e+01  # H ethanol
    274      31    3   0.060000  6.639439e+00  1.499800e+00  2.167640e+01  # H ethanol
    275      31    3   0.060000  4.320536e+00  1.726821e+00  2.100057e+01  # H ethanol
    276      31    3   0.060000  6.487969e+00  2.957620e+00  2.268583e+01  # H ethanol
    277      31    4  -0.683000  5.380633e+00  3.362037e+00  2.036685e+01  # OH ethanol
    278      31    3   0.060000  5.547077e+00  1.499735e+00  2.308135e+01  # H ethanol
    279      31    5   0.418000  4.674945e+00  3.668626e+00  1.981818e+01  # HO ethanol
    280      32    1  -0.180000  1.696566e+01  6.276719e+00  2.470068e+00  # C3H ethanol
    281      32    2   0.145000  1.841018e+01  6.188594e+00  2.212164e+00  # CTO ethanol
    282      32    3   0.060000  1.860484e+01  5.383397e+00  1.503740e+00  # H ethanol
    283      32    3   0.060000  1.677100e+01  7.081916e+00  3.178492e+00  # H ethanol
    284      32    3   0.060000  1.893472e+01  5.985174e+00  3.145747e+00  # H ethanol
    285      32    3   0.060000  1.644112e+01  6.480139e+00  1.536485e+00  # H ethanol
    286      32    4  -0.683000  1.886735e+01  7.408669e+00  1.673174e+00  # OH ethanol
    287      32    3   0.060000  1.661225e+01  5.333541e+00  2.886733e+00  # H ethanol
    288      32    5   0.418000  1.979597e+01  7.352016e+00  1.507378e+00  # HO ethanol
    289      33    1  -0.180000  2.112157e+01  1.131216e+01  1.418778e+01  # C3H ethanol
    290      33    2   0.145000  2.242509e+01  1.063800e+01  1.410277e+01  # CTO ethanol
    291      33    3   0.060000  2.287740e+01  1.059425e+01  1.509353e+01  # H ethanol
    292      33    3   0.060000  2.066926e+01  1.135590e+01  1.319702e+01  # H ethanol
    293      33    3   0.060000  2.307859e+01  1.119307e+01  1.342978e+01  # H ethanol
    294      33    3   0.060000  2.046806e+01  1.075709e+01  1.486078e+01  # H ethanol
    295      33    4  -0.683000  2.224673e+01  9.328979e+00  1.361007e+01  # OH ethanol
    296      33    3   0.060000  2.125945e+01  1.232410e+01  1.456867e+01  # H ethanol
    297      33    5   0.418000  2.308471e+01  8.895585e+00  1.355541e+01  # HO ethanol
    298      34    1  -0.180000  3.600384e+00  1.707458e+01  1.554621e+01  # C3H ethanol
    299      34    2   0.145000  2.337234e+00  1.703768e+01  1.479522e+01  # CTO ethanol
    300      34    3   0.060000  1.500629e+00  1.715168e+01  1.548456e+01  # H ethanol
    301      34    3   0.060000  4.436988e+00  1.696058e+01  1.485687e+01  # H ethanol
    302      34    3   0.060000  2.251109e+00  1.608385e+01  1.427474e+01  # H ethanol
    303      34    3   0.060000  3.686509e+00  1.802840e+01  1.606669e+01  # H ethanol
    304      34    4  -0.683000  2.317543e+00  1.808862e+01  1.385542e+01  # OH ethanol
    305      34    3   0.060000  3.615605e+00  1.626215e+01  1.627273e+01  # H ethanol
    306      34    5   0.418000  1.505517e+00  1.806490e+01  1.337263e+01  # HO ethanol
    307      35    1  -0.180000  1.698358e+01  1.068479e+01  4.411812e+00  # C3H ethanol
    308      35    2   0.145000  1.585135e+01  1.127293e+01  5.141912e+00  # CTO ethanol
    309      35    3   0.060000  1.606815e+01  1.231651e+01  5.370028e+00  # H ethanol
    310      35    3   0.060000  1.676678e+01  9.641208e+00  4.183695e+00  # H ethanol
    311      35    3   0.060000  1.569242e+01  1.072409e+01  6.070143e+00  # H ethanol
    312      35    3   0.060000  1.714252e+01  1.123363e+01  3.483580e+00  # H ethanol
    313      35    4  -0.683000  1.468895e+01  1.119788e+01  4.347380e+00  # OH ethanol
    314      35    3   0.060000  1.788218e+01  1.074281e+01  5.026025e+00  # H ethanol
    315      35    5   0.418000  1.396109e+01  1.157598e+01  4.816730e+00  # HO ethanol
    316      36    1  -0.180000  8.294930e+00  8.962777e+00  1.784049e+01  # C3H ethanol
    317      36    2   0.145000  7.437060e+00  9.995519e+00  1.724182e+01  # CTO ethanol
    318      36    3   0.060000  6.625915e+00  9.519995e+00  1.669044e+01  # H ethanol
    319      36    3   0.060000  9.106076e+00  9.438301e+00  1.839187e+01  # H ethanol
    320      36    3   0.060000  8.027315e+00  1.060929e+01  1.656139e+01  # H ethanol
    321      36    3   0.060000  7.704676e+00  8.349005e+00  1.852091e+01  # H ethanol
    322      36    4  -0.683000  6.898777e+00  1.080868e+01  1.826021e+01  # OH ethanol
    323      36    3   0.060000  8.711049e+00  8.334164e+00  1.705322e+01  # H ethanol
    324      36    5   0.418000  6.347289e+00  1.147258e+01  1.787535e+01  # HO ethanol
    325      37    1  -0.180000  1.848160e+01  2.126325e+01  1.568949e+01  # C3H ethanol
    326      37    2   0.145000  1.795526e+01  2.234753e+01  1.484793e+01  # CTO ethanol
    327      37    3   0.060000  1.878132e+01  2.285563e+01  1.435038e+01  # H ethanol
    328      37    3   0.060000  1.765555e+01  2.075514e+01  1.618704e+01  # H ethanol
    329      37    3   0.060000  1.741273e+01  2.305986e+01  1.546949e+01  # H ethanol